LAMMPS data file Created by LigParGen - (Written by Leela S. Dodda)

      20 atoms
      19 bonds
      36 angles
      45 dihedrals
      12 impropers
 
      20 atom types
      19 bond types
      36 angle types
      45 dihedral types
      12 improper types
 
   -5.074870    44.925130 xlo xhi
   -2.399060    47.600940 ylo yhi
   -2.461920    47.538080 zlo zhi

Masses

       1     12.011  
       2     12.011  
       3      1.008  
       4      1.008  
       5      1.008  
       6     12.011  
       7      1.008  
       8      1.008  
       9     12.011  
      10      1.008  
      11      1.008  
      12     12.011  
      13      1.008  
      14      1.008  
      15     12.011  
      16      1.008  
      17      1.008  
      18      1.008  
      19      1.008  
      20      1.008  

Pair Coeffs 

       1      0.066  3.5000000 
       2      0.066  3.5000000 
       3      0.030  2.5000000 
       4      0.030  2.5000000 
       5      0.030  2.5000000 
       6      0.066  3.5000000 
       7      0.030  2.5000000 
       8      0.030  2.5000000 
       9      0.066  3.5000000 
      10      0.030  2.5000000 
      11      0.030  2.5000000 
      12      0.066  3.5000000 
      13      0.030  2.5000000 
      14      0.030  2.5000000 
      15      0.066  3.5000000 
      16      0.030  2.5000000 
      17      0.030  2.5000000 
      18      0.030  2.5000000 
      19      0.030  2.5000000 
      20      0.030  2.5000000 

Bond Coeffs 

       1   268.0000     1.5290 
       2   340.0000     1.0900 
       3   340.0000     1.0900 
       4   340.0000     1.0900 
       5   268.0000     1.5290 
       6   340.0000     1.0900 
       7   340.0000     1.0900 
       8   268.0000     1.5290 
       9   340.0000     1.0900 
      10   340.0000     1.0900 
      11   268.0000     1.5290 
      12   340.0000     1.0900 
      13   340.0000     1.0900 
      14   268.0000     1.5290 
      15   340.0000     1.0900 
      16   340.0000     1.0900 
      17   340.0000     1.0900 
      18   340.0000     1.0900 
      19   340.0000     1.0900 

Angle Coeffs 

       1     37.500    110.700
       2     37.500    110.700
       3     37.500    110.700
       4     58.350    112.700
       5     37.500    110.700
       6     37.500    110.700
       7     58.350    112.700
       8     37.500    110.700
       9     37.500    110.700
      10     58.350    112.700
      11     37.500    110.700
      12     37.500    110.700
      13     58.350    112.700
      14     37.500    110.700
      15     37.500    110.700
      16     37.500    110.700
      17     37.500    110.700
      18     37.500    110.700
      19     33.000    107.800
      20     33.000    107.800
      21     33.000    107.800
      22     33.000    107.800
      23     37.500    110.700
      24     37.500    110.700
      25     33.000    107.800
      26     33.000    107.800
      27     33.000    107.800
      28     37.500    110.700
      29     37.500    110.700
      30     37.500    110.700
      31     33.000    107.800
      32     37.500    110.700
      33     33.000    107.800
      34     37.500    110.700
      35     33.000    107.800
      36     37.500    110.700

Dihedral Coeffs  

       1      0.000      0.000      0.300      0.000 
       2      1.300     -0.200      0.200      0.000 
       3      1.300     -0.200      0.200      0.000 
       4      1.300     -0.200      0.200      0.000 
       5      0.000      0.000      0.300      0.000 
       6      0.000      0.000      0.300      0.000 
       7      0.000      0.000      0.300      0.000 
       8      0.000      0.000      0.300      0.000 
       9      0.000      0.000      0.300      0.000 
      10      0.000      0.000      0.300      0.000 
      11      0.000      0.000      0.300      0.000 
      12      0.000      0.000      0.300      0.000 
      13      0.000      0.000      0.300      0.000 
      14      0.000      0.000      0.300      0.000 
      15      0.000      0.000      0.300      0.000 
      16      0.000      0.000      0.300      0.000 
      17      0.000      0.000      0.300      0.000 
      18      0.000      0.000      0.300      0.000 
      19      0.000      0.000      0.300      0.000 
      20      0.000      0.000      0.300      0.000 
      21      0.000      0.000      0.300      0.000 
      22      0.000      0.000      0.300      0.000 
      23      0.000      0.000      0.300      0.000 
      24      0.000      0.000      0.300      0.000 
      25      0.000      0.000      0.300      0.000 
      26      0.000      0.000      0.300      0.000 
      27      0.000      0.000      0.300      0.000 
      28      0.000      0.000      0.300      0.000 
      29      0.000      0.000      0.300      0.000 
      30      0.000      0.000      0.300      0.000 
      31      0.000      0.000      0.300      0.000 
      32      0.000      0.000      0.300      0.000 
      33      0.000      0.000      0.300      0.000 
      34      0.000      0.000      0.300      0.000 
      35      0.000      0.000      0.300      0.000 
      36      0.000      0.000      0.300      0.000 
      37      0.000      0.000      0.300      0.000 
      38      0.000      0.000      0.300      0.000 
      39      0.000      0.000      0.300      0.000 
      40      0.000      0.000      0.300      0.000 
      41      0.000      0.000      0.300      0.000 
      42      0.000      0.000      0.300      0.000 
      43      0.000      0.000      0.300      0.000 
      44      0.000      0.000      0.300      0.000 
      45      0.000      0.000      0.300      0.000 

Improper Coeffs 

       1      0.000      -1       2 
       2      0.000      -1       2 
       3      0.000      -1       2 
       4      0.000      -1       2 
       5      0.000      -1       2 
       6      0.000      -1       2 
       7      0.000      -1       2 
       8      0.000      -1       2 
       9      0.000      -1       2 
      10      0.000      -1       2 
      11      0.000      -1       2 
      12      0.000      -1       2 

Atoms 

     1      1      1 -0.24180000    1.000  1.00000  0.00000
     2      1      2 -0.18350000   -0.526  1.00000  0.00000
     3      1      3 0.08200000    1.385  1.00000 -1.04218
     4      1      4 0.08200000    1.387  0.10481  0.53114
     5      1      5 0.08200000    1.371  1.91091  0.51516
     6      1      6 -0.18130000   -1.078 -0.24314 -0.70701
     7      1      7 0.08950000   -0.883  1.02060  1.05331
     8      1      8 0.08950000   -0.884  1.91499 -0.51887
     9      1      9 -0.18110000   -2.611 -0.24117 -0.70381
    10      1     10 0.09070000   -0.713 -0.25946 -1.75795
    11      1     11 0.09070000   -0.711 -1.15439 -0.18371
    12      1     12 -0.18360000   -3.163 -1.48459 -1.40889
    13      1     13 0.09070000   -2.977  0.67031 -1.22767
    14      1     14 0.09070000   -2.976 -0.22297  0.34766
    15      1     15 -0.24180000   -4.690 -1.48459 -1.40889
    16      1     16 0.08950000   -2.805 -2.39906 -0.88730
    17      1     17 0.08950000   -2.805 -1.50745 -2.46192
    18      1     18 0.08210000   -5.075 -1.48327 -0.36676
    19      1     19 0.08210000   -5.061 -2.39499 -1.92500
    20      1     20 0.08210000   -5.075 -0.58850 -1.94210

Bonds 

     1      1      2      1
     2      2      3      1
     3      3      4      1
     4      4      5      1
     5      5      6      2
     6      6      7      2
     7      7      8      2
     8      8      9      6
     9      9     10      6
    10     10     11      6
    11     11     12      9
    12     12     13      9
    13     13     14      9
    14     14     15     12
    15     15     16     12
    16     16     17     12
    17     17     18     15
    18     18     19     15
    19     19     20     15

Angles 

     1      1      2      1      3
     2      2      2      1      4
     3      3      2      1      5
     4      4      1      2      6
     5      5      1      2      7
     6      6      1      2      8
     7      7      2      6      9
     8      8      2      6     10
     9      9      2      6     11
    10     10      6      9     12
    11     11      6      9     13
    12     12      6      9     14
    13     13      9     12     15
    14     14      9     12     16
    15     15      9     12     17
    16     16     12     15     18
    17     17     12     15     19
    18     18     12     15     20
    19     19     13      9     14
    20     20     19     15     20
    21     21     18     15     19
    22     22     18     15     20
    23     23     12      9     14
    24     24     15     12     16
    25     25      3      1      4
    26     26      3      1      5
    27     27      7      2      8
    28     28      9      6     10
    29     29      6      2      7
    30     30      9      6     11
    31     31     16     12     17
    32     32     12      9     13
    33     33     10      6     11
    34     34      6      2      8
    35     35      4      1      5
    36     36     15     12     17

Dihedrals

     1      1      6      2      1      3 
     2      2      9      6      2      1 
     3      3     12      9      6      2 
     4      4     15     12      9      6 
     5      5     18     15     12      9 
     6      6     14      9      6      2 
     7      7     19     15     12     16 
     8      8     20     15     12     16 
     9      9     12      9      6     11 
    10     10     13      9      6      2 
    11     11     12      9      6     10 
    12     12     13      9      6     11 
    13     13     19     15     12      9 
    14     14     14      9      6     10 
    15     15     17     12      9     13 
    16     16     16     12      9      6 
    17     17     11      6      2      8 
    18     18      7      2      1      5 
    19     19      8      2      1      4 
    20     20      9      6      2      8 
    21     21      7      2      1      3 
    22     22      6      2      1      4 
    23     23     13      9      6     10 
    24     24      9      6      2      7 
    25     25     11      6      2      7 
    26     26     17     12      9     14 
    27     27     15     12      9     13 
    28     28     10      6      2      8 
    29     29     11      6      2      1 
    30     30     19     15     12     17 
    31     31     10      6      2      1 
    32     32     14      9      6     11 
    33     33     18     15     12     16 
    34     34      7      2      1      4 
    35     35     20     15     12      9 
    36     36     18     15     12     17 
    37     37     16     12      9     14 
    38     38     20     15     12     17 
    39     39      8      2      1      3 
    40     40     10      6      2      7 
    41     41      6      2      1      5 
    42     42      8      2      1      5 
    43     43     17     12      9      6 
    44     44     15     12      9     14 
    45     45     16     12      9     13 

Impropers

     1      1      1      2      3      4 
     2      2      1      2      3      5 
     3      3      2      1      6      7 
     4      4      2      1      6      8 
     5      5      6      9     10      2 
     6      6      6      9      2     11 
     7      7      9     12     13      6 
     8      8      9     12     14      6 
     9      9     12      9     15     16 
    10     10     12     17      9     15 
    11     11     15     18     19     12 
    12     12     15     12     18     20 
